LAMMPS data file generated get_lammps_data.py [VK]

2400 atoms
3 atom types

0.0 20.0 xlo xhi
0.0 20.0 ylo yhi
0.0 100.0 zlo zhi
0.0 0.0 0.0 xy xz yz

Masses

1 2.0000
2 12.011
3 15.999

Atoms

    1     1 7.354000000000001  5.353  24.321
    2     1 8.831  5.929000000000001  23.929000000000002
    3     3 7.87  6.1690000000000005  24.061000000000003
    4     1 9.173  7.515000000000001  31.323
    5     1 10.278  8.592  31.856
    6     3 9.504  8.019  32.121
    7     1 18.001  6.030000000000001  14.536
    8     1 16.388  6.280000000000001  14.580000000000002
    9     3 17.284  6.724000000000001  14.6
   10     1 4.622  3.528  32.15
   11     1 5.505  4.432  31.115
   12     3 4.721  4.433  31.735000000000003
   13     1 11.315  14.586000000000002  20.441
   14     1 12.528000000000002  14.889000000000001  19.391
   15     3 12.274000000000001  14.401000000000002  20.226
   16     1 6.583000000000001  11.446000000000002  5.446
   17     1 7.348  10.846  4.134
   18     3 6.478000000000001  11.189  4.485
   19     1 15.169  7.376  29.814
   20     1 15.274000000000001  7.306  28.186
   21     3 14.657  7.454000000000001  28.958000000000002
   22     1 8.316  12.423000000000002  11.248
   23     1 6.838000000000001  12.035  10.674
   24     3 7.362000000000001  12.255000000000003  11.496
   25     1 2.4480000000000004  17.39  42.396
   26     1 3.831  18.0  43.013
   27     3 2.8360000000000003  17.975  43.108
   28     1 12.613000000000001  11.180000000000001  34.721
   29     1 11.51  12.255000000000003  35.264
   30     3 12.465000000000002  11.964000000000002  35.324
   31     1 12.974  14.992  11.428
   32     1 13.011  13.630000000000003  10.529
   33     3 12.521000000000003  14.118000000000002  11.25
   34     1 9.378  3.973  36.238
   35     1 10.435  3.3380000000000005  37.309
   36     3 10.307000000000002  4.035  36.604
   37     1 7.678000000000001  11.449  45.119
   38     1 6.097000000000001  11.854  45.156
   39     3 6.755  11.12  45.32
   40     1 13.661000000000001  12.649  28.504999999999995
   41     1 15.244  12.972000000000001  28.266999999999996
   42     3 14.555  12.249  28.301
   43     1 9.517  6.256  46.53
   44     1 11.122  6.402000000000001  46.795
   45     3 10.346  6.752000000000001  46.271
   46     1 2.089  1.26  37.994
   47     1 3.659  1.7000000000000002  38.079
   48     3 2.717  2.035  38.068
   49     1 13.431  3.1810000000000005  18.193
   50     1 12.903000000000002  4.709  17.96
   51     3 12.621000000000002  3.7620000000000005  18.11
   52     1 10.559000000000001  15.045000000000002  23.414
   53     1 8.944  14.839000000000002  23.54
   54     3 9.816  14.376  23.389
   55     1 1.553  2.838  20.518
   56     1 2.9970000000000003  3.471  20.091
   57     3 2.35  2.727  19.924
   58     1 6.1160000000000005  15.498000000000001  29.220000000000002
   59     1 7.667000000000001  15.553  28.711
   60     3 6.882000000000001  14.956  28.872000000000003
   61     1 14.202000000000002  6.5200000000000005  44.455
   62     1 14.902  6.027  43.064
   63     3 14.066  6.000000000000001  43.612
   64     1 0.685  1.4180000000000001  2.237
   65     1 0.203  1.0020000000000002  3.7409999999999997
   66     3 0.557  1.745  3.173
   67     1 13.678  13.151000000000002  47.342
   68     1 13.432000000000002  13.937  45.932
   69     3 12.987000000000002  13.451000000000002  46.683
   70     1 6.104000000000001  7.849  24.753
   71     1 4.702  7.781000000000001  25.589000000000002
   72     3 5.222000000000001  8.294  24.906
   73     1 6.052  13.291000000000002  13.394999999999998
   74     1 6.859000000000001  11.887  13.605
   75     3 6.948  12.882  13.568
   76     1 13.296000000000001  12.526000000000002  17.649
   77     1 14.147  11.886  16.411
   78     3 14.087  12.652000000000001  17.051
   79     1 9.086  17.385  6.753000000000001
   80     1 8.531  16.18  5.802
   81     3 9.345  16.576  6.225
   82     1 8.846  8.776  43.601
   83     1 9.408  7.252000000000001  43.438
   84     3 9.542  8.126  43.904
   85     1 4.535  11.093  23.778
   86     1 5.8260000000000005  11.595000000000002  24.643
   87     3 5.087000000000001  11.886  24.035
   88     1 1.9  14.053000000000003  45.531
   89     1 0.29600000000000004  13.776000000000002  45.412
   90     3 1.017  14.457000000000003  45.293
   91     1 0.873  7.455  16.084
   92     1 19.998  8.82  16.272
   93     3 0.04900000000000001  7.943  15.797
   94     1 15.069  2.564  39.095
   95     1 15.330000000000002  3.733  37.985
   96     3 14.631  3.2410000000000005  38.503
   97     1 12.521000000000003  2.537  2.144
   98     1 13.889  2.335  3.013
   99     3 13.520000000000001  2.508  2.101
  100     1 5.156  6.899000000000001  32.973
  101     1 5.510000000000001  7.224  34.533
  102     3 5.85  6.815000000000001  33.688
  103     1 0.065  5.244  16.537
  104     1 0.899  3.9430000000000005  17.064
  105     3 0.0  4.277  16.782
  106     1 5.948000000000001  1.396  31.923000000000002
  107     1 4.591000000000001  1.5890000000000002  31.036
  108     3 5.37  0.989  31.216
  109     1 7.51  16.069  10.413
  110     1 7.785000000000001  14.472000000000001  10.619
  111     3 8.189  15.385  10.68
  112     1 12.711000000000002  5.719000000000001  40.503
  113     1 11.76  4.399  40.362
  114     3 11.766000000000002  5.391  40.481
  115     1 8.281  12.429000000000002  37.201
  116     1 9.493  13.429000000000002  37.646
  117     3 9.272  12.565  37.195
  118     1 10.515  3.39  46.296
  119     1 11.456  2.055  46.322
  120     3 10.515  2.39  46.291
  121     1 11.141000000000002  8.61  21.742
  122     1 9.916  8.465  20.673
  123     3 10.891  8.66  20.775
  124     1 17.072  15.120000000000001  7.686
  125     1 15.598  14.471  7.416
  126     3 16.457  14.752  6.988999999999999
  127     1 5.807000000000001  9.431  41.281
  128     1 7.000000000000001  10.526  41.068
  129     3 6.796000000000001  9.556000000000001  41.198
  130     1 7.754  15.281000000000002  40.959
  131     1 9.316  14.813  40.867
  132     3 8.434  14.813  40.396
  133     1 6.106  11.696  15.694000000000003
  134     1 6.403  13.253000000000002  16.091
  135     3 6.718000000000001  12.31  16.194
  136     1 13.611000000000002  2.211  7.978000000000001
  137     1 12.058  2.346  8.465
  138     3 12.996  2.645  8.637
  139     1 1.289  13.451000000000002  27.726
  140     1 1.138  12.295  26.583000000000002
  141     3 0.716  12.702  27.392
  142     1 9.774  10.435  44.708
  143     1 11.119000000000002  9.559  45.011
  144     3 10.201  9.784000000000002  45.337
  145     1 7.899000000000001  0.725  4.766
  146     1 6.35  1.124  5.095
  147     3 7.27  1.483  4.94
  148     1 11.245000000000001  0.003  19.888
  149     1 10.369  1.157  19.136
  150     3 10.356000000000002  0.22100000000000003  19.484
  151     1 5.132  11.93  43.181
  152     1 6.431  10.941  43.151
  153     3 5.433  10.977  43.209
  154     1 1.8930000000000002  9.961  7.799
  155     1 2.6340000000000003  10.051000000000002  6.3469999999999995
  156     3 1.7500000000000002  10.041  6.812
  157     1 10.408  19.997  30.042
  158     1 8.806  0.02  30.359
  159     3 9.53  0.398  29.782000000000004
  160     1 6.945000000000001  10.207  12.185000000000002
  161     1 6.795  9.644  10.659
  162     3 6.356000000000001  9.7  11.555
  163     1 9.187  11.448  0.0
  164     1 10.805  11.232  99.991
  165     3 9.92  10.768000000000002  99.996
  166     1 0.0  0.574  36.19
  167     1 0.0  0.0  37.718
  168     3 0.553  0.131  36.896
  169     1 7.288000000000001  10.304  37.356
  170     1 7.611  9.303  36.107
  171     3 6.9110000000000005  9.597  36.757
  172     1 2.013  5.962  2.63
  173     1 3.5990000000000006  5.957  3.019
  174     3 2.807  5.383  2.816
  175     1 16.342  9.044  17.313
  176     1 15.203  10.213  17.368
  177     3 15.411000000000001  9.265  17.605
  178     1 11.179000000000002  10.548  4.948
  179     1 10.424  9.889  6.237
  180     3 11.268  9.898  5.702
  181     1 9.323  17.983000000000004  13.28
  182     1 10.899  17.931  12.855
  183     3 10.234000000000002  17.673  13.555
  184     1 9.099  12.508  43.808
  185     1 8.937  13.894000000000002  44.655
  186     3 9.414  13.453  43.896
  187     1 13.319  13.966000000000001  24.102
  188     1 13.965  12.636000000000001  24.795
  189     3 14.080000000000002  13.618000000000002  24.651
  190     1 7.552  4.232  22.438
  191     1 7.659000000000001  5.669  21.669
  192     3 7.030000000000001  4.995000000000001  22.056
  193     1 17.126  8.447  7.15
  194     1 17.416  7.713000000000001  5.72
  195     3 17.825  8.24  6.464
  196     1 16.017000000000003  0.893  28.498
  197     1 14.673  1.147  29.39
  198     3 15.409000000000002  0.5010000000000001  29.189
  199     1 17.703  7.115  0.085
  200     1 16.647  8.133  0.803
  201     3 16.739  7.2780000000000005  0.294
  202     1 10.761000000000001  3.9020000000000006  9.985
  203     1 11.352  5.234  9.248
  204     3 11.55  4.289  9.507
  205     1 8.762  15.691000000000003  43.003
  206     1 8.894  17.14  42.264
  207     3 8.271  16.521  42.739
  208     1 3.6410000000000005  17.992  4.641
  209     1 4.82  16.882  4.847
  210     3 4.558  17.833  5.006
  211     1 4.631  12.239000000000003  40.971
  212     1 3.8230000000000004  10.891  40.528
  213     3 4.581  11.246  41.075
  214     1 4.724  7.743000000000001  22.814
  215     1 5.678  6.434000000000001  23.027
  216     3 5.082  6.914  22.384
  217     1 3.3130000000000006  5.228000000000001  5.08
  218     1 3.937  3.756  5.411
  219     3 3.0920000000000005  4.282  5.32
  220     1 9.380000000000003  12.949000000000002  1.5789999999999997
  221     1 10.976  13.284000000000002  1.6709999999999998
  222     3 10.222  13.069000000000003  1.052
  223     1 17.489  5.869  7.876000000000001
  224     1 17.843  5.011  6.5329999999999995
  225     3 18.0  5.088  7.517
  226     1 11.091  16.652  38.234
  227     1 12.269000000000002  15.999  37.311
  228     3 11.408000000000001  16.507  37.297
  229     1 1.268  11.569  30.880000000000003
  230     1 0.959  10.173000000000002  31.669000000000004
  231     3 0.55  10.936000000000002  31.17
  232     1 9.121000000000002  0.929  17.233
  233     1 9.065  0.032  15.870000000000001
  234     3 9.158  0.0  16.864
  235     1 17.182  16.805  39.741
  236     1 15.897000000000002  17.603  39.126
  237     3 16.224  16.721  39.465
  238     1 15.252  2.053  17.695
  239     1 15.443  3.654  17.438
  240     3 15.330000000000002  2.765  16.996
  241     1 7.875000000000001  16.495  22.263
  242     1 7.343000000000001  18.0  22.606
  243     3 7.069000000000001  17.085  22.314
  244     1 6.806000000000001  8.409  8.382
  245     1 6.344000000000001  6.875  8.068
  246     3 7.026  7.578  7.871
  247     1 6.605  18.0  4.228
  248     1 6.104000000000001  17.092  2.967
  249     3 6.763  17.782  3.2649999999999997
  250     1 13.495  5.489000000000001  21.609
  251     1 13.327  3.891  21.317
  252     3 12.884000000000002  4.702  21.697
  253     1 13.105000000000002  14.481000000000002  8.304
  254     1 13.159  12.849000000000002  8.327
  255     3 13.709  13.684000000000001  8.331
  256     1 6.194000000000001  13.872  18.474
  257     1 5.007000000000001  14.562  19.358
  258     3 5.316  14.348  18.432
  259     1 16.868  8.740000000000002  25.717000000000002
  260     1 17.747  10.107  25.556
  261     3 17.79  9.11  25.599
  262     1 6.452  3.2630000000000003  20.551
  263     1 5.251  3.2200000000000006  19.446
  264     3 5.531000000000001  3.587  20.332
  265     1 1.185  14.906000000000002  1.067
  266     1 1.5470000000000002  16.366  0.43
  267     3 1.8830000000000002  15.438  0.586
  268     1 11.736000000000002  7.738  8.67
  269     1 10.218  7.330000000000001  8.228
  270     3 11.162  7.424  7.913
  271     1 1.582  6.106  21.844
  272     1 1.113  5.365000000000001  23.221
  273     3 1.8130000000000002  5.395  22.508
  274     1 8.345  2.129  46.646
  275     1 8.187  3.6240000000000006  46.006
  276     3 8.23  3.1000000000000005  46.857
  277     1 0.0  14.965000000000002  38.541
  278     1 1.4480000000000002  15.058  37.792
  279     3 0.801  14.445  38.245
  280     1 17.906  14.263000000000002  13.941
  281     1 17.091  12.852  13.835
  282     3 17.982  13.269000000000002  14.016
  283     1 9.596  7.379  4.891
  284     1 9.01  6.648000000000001  3.553
  285     3 9.835  6.837  4.085
  286     1 18.0  17.952000000000005  32.305
  287     1 16.422  17.567  32.475
  288     3 17.097  18.0  31.878
  289     1 9.827  10.148  19.269
  290     1 11.279000000000002  9.773  18.622
  291     3 10.292000000000002  9.642  18.542
  292     1 13.419  3.47  48.0
  293     1 12.481  4.614000000000001  47.308
  294     3 13.386  4.419  47.684
  295     1 4.192  7.396000000000001  43.187
  296     1 3.068  7.3  42.006
  297     3 3.375  6.9110000000000005  42.874
  298     1 0.9710000000000001  0.948  19.554
  299     1 19.999  19.999  18.649
  300     3 0.045  0.583  19.458
  301     1 13.799000000000001  19.998  9.504
  302     1 12.206000000000001  19.999  9.146
  303     3 12.990000000000002  0.573  9.379
  304     1 11.693  5.841000000000001  32.112
  305     1 10.879000000000001  6.576  33.321
  306     3 11.23  6.682000000000001  32.392
  307     1 12.363  9.23  31.553000000000004
  308     1 12.940000000000001  7.896000000000001  30.809000000000005
  309     3 12.794  8.88  30.720999999999997
  310     1 10.93  15.104  15.997999999999998
  311     1 11.218000000000002  15.185000000000002  17.604
  312     3 10.982000000000001  14.577  16.847
  313     1 1.166  4.2  38.087
  314     1 1.025  5.603  37.264
  315     3 0.526  4.901  37.77
  316     1 0.546  5.983  14.217000000000002
  317     1 1.7700000000000002  5.461  15.164
  318     3 1.159  5.217  14.411999999999999
  319     1 0.99  12.439  0.06
  320     1 2.324  13.379000000000001  0.003
  321     3 1.947  12.518000000000002  0.341
  322     1 11.504000000000001  3.253  14.196
  323     1 11.485000000000001  3.537  12.588
  324     3 10.920000000000002  3.4440000000000004  13.407
  325     1 11.690000000000001  5.763  44.572
  326     1 10.793  5.005000000000001  43.437
  327     3 10.780000000000001  5.692  44.163
  328     1 1.925  13.068  39.728
  329     1 3.346  13.873  39.738
  330     3 2.351  13.973000000000003  39.732
  331     1 12.444000000000003  11.021  46.369
  332     1 11.689  10.888  47.81100000000001
  333     3 12.512  10.651  47.296
  334     1 0.832  8.779  13.138
  335     1 2.182  9.696  13.071
  336     3 1.182  9.713  13.065999999999999
  337     1 16.095  18.0  47.754
  338     1 16.716  16.569  47.272
  339     3 16.714  17.254  48.0
  340     1 15.783000000000001  3.691  1.576
  341     1 17.26  4.028  2.185
  342     3 16.689  4.058  1.365
  343     1 9.95  2.278  31.976
  344     1 10.128000000000002  2.433  30.36
  345     3 10.376000000000001  1.888  31.16
  346     1 16.067  4.029  44.138
  347     1 15.540000000000001  4.417  45.634
  348     3 15.281000000000002  4.016  44.756
  349     1 15.998000000000001  6.3  34.703
  350     1 16.938  7.633000000000001  34.778
  351     3 16.934  6.634000000000001  34.814
  352     1 10.669000000000002  2.19  34.291
  353     1 10.147000000000002  3.6220000000000003  33.706
  354     3 9.864  2.758  34.12
  355     1 13.818000000000001  11.266  14.324
  356     1 14.236000000000002  12.844  14.336000000000002
  357     3 13.900000000000002  12.094000000000001  13.767999999999999
  358     1 1.006  0.9870000000000001  12.013
  359     1 2.261  0.0  12.353
  360     3 1.28  0.038  12.168
  361     1 6.5120000000000005  13.884  32.733
  362     1 7.581000000000001  13.250000000000002  33.792
  363     3 6.686000000000001  13.684000000000001  33.697
  364     1 15.382  13.064  12.469
  365     1 16.358  13.469  11.224
  366     3 15.697000000000001  13.816000000000003  11.889
  367     1 11.180000000000001  14.15  42.786
  368     1 11.183  15.471000000000002  41.826
  369     3 11.581  14.565000000000001  41.969
  370     1 7.162000000000001  5.664  45.055
  371     1 6.0840000000000005  6.816  44.632
  372     3 6.331000000000001  6.147  45.332
  373     1 4.686  12.610000000000001  21.898
  374     1 4.636  11.171  21.129
  375     3 4.085  11.923000000000002  21.489000000000004
  376     1 15.369000000000002  16.286  34.329
  377     1 14.783  15.098000000000003  35.284
  378     3 14.560000000000002  15.742000000000003  34.553
  379     1 1.152  4.135  33.578
  380     1 2.684  4.227  33.019
  381     3 1.7500000000000002  3.9490000000000003  32.798
  382     1 6.331000000000001  17.816000000000003  7.382
  383     1 5.721  16.302  7.411
  384     3 5.4910000000000005  17.274  7.376
  385     1 11.526  0.597  2.43
  386     1 9.901  0.538  2.576
  387     3 10.739  19.994  2.562
  388     1 12.238  3.5000000000000004  29.401
  389     1 12.670000000000002  2.064  30.048
  390     3 12.953000000000001  2.801  29.437
  391     1 0.009  14.559  36.196
  392     1 0.386  14.950000000000001  34.655
  393     3 0.5510000000000002  15.168  35.617
  394     1 16.135  5.764  47.473
  395     1 14.781000000000002  6.675  47.524
  396     3 15.138  5.741  47.543
  397     1 1.028  2.198  23.708
  398     1 0.386  3.5420000000000003  24.376
  399     3 0.254  2.83  23.688
  400     1 1.309  7.553000000000001  18.313
  401     1 0.0  6.576  18.307
  402     3 0.318  7.514000000000001  18.442
  403     1 10.335  8.513  14.585
  404     1 11.900000000000002  8.141  14.868
  405     3 10.953  7.92  15.102000000000002
  406     1 8.224  2.523  38.359
  407     1 6.73  2.241  38.955
  408     3 7.582  1.814  38.65
  409     1 14.937000000000001  8.725000000000001  44.873
  410     1 16.527  8.473000000000003  44.603
  411     3 15.84  9.153  44.858
  412     1 12.830000000000002  1.9230000000000003  25.483
  413     1 13.733000000000002  3.19  25.979000000000003
  414     3 13.761000000000001  2.276  25.576999999999998
  415     1 11.336000000000002  8.024000000000001  28.84
  416     1 10.062  7.731  27.860000000000003
  417     3 10.668  7.338  28.552
  418     1 11.352  6.280000000000001  13.666
  419     1 12.346000000000002  5.266000000000001  14.472999999999999
  420     3 12.242  5.823  13.65
  421     1 1.186  11.191000000000003  14.696000000000002
  422     1 0.118  12.338000000000001  14.238000000000001
  423     3 0.829  11.711  13.919999999999998
  424     1 8.43  13.016000000000002  41.775
  425     1 6.814  13.253000000000002  41.734
  426     3 7.537000000000001  12.565  41.788
  427     1 6.618  6.396000000000001  17.499
  428     1 6.737000000000001  5.623  16.066
  429     3 7.114000000000001  5.694  16.988
  430     1 18.0  8.298000000000002  3.251
  431     1 16.618  9.127  2.989
  432     3 17.02  8.215  3.071
  433     1 9.917  16.452  33.059
  434     1 8.395  17.041  33.112
  435     3 9.336  17.183  33.416
  436     1 17.801000000000002  13.952  47.99
  437     1 17.279  12.985  46.782
  438     3 17.549  13.016000000000002  47.744
  439     1 2.048  10.075000000000001  29.467
  440     1 2.566  8.528  29.544000000000004
  441     3 2.8540000000000005  9.485  29.523
  442     1 8.853  10.295000000000002  11.089
  443     1 9.277  9.445  12.417
  444     3 9.23  10.358  12.013
  445     1 7.572000000000001  16.88  30.772
  446     1 8.738  18.001  30.546
  447     3 7.7780000000000005  17.775  30.377
  448     1 18.001  9.685000000000002  38.027
  449     1 16.445  10.177  38.089
  450     3 17.059  9.396  38.198
  451     1 8.614  6.271  33.156
  452     1 7.589000000000001  5.979  31.918000000000003
  453     3 8.262  5.571000000000001  32.534
  454     1 7.39  1.1640000000000001  35.125
  455     1 6.3100000000000005  19.997  34.753
  456     3 6.42  0.9620000000000001  34.99
  457     1 2.9570000000000003  1.116  7.927
  458     1 3.796  0.001  7.079000000000001
  459     3 2.933  0.502  7.138
  460     1 16.088  4.396  32.233
  461     1 15.508  3.267  33.261
  462     3 15.852000000000002  4.203  33.186
  463     1 10.617  16.904  30.869000000000003
  464     1 11.527000000000001  18.001  31.667
  465     3 11.372  17.025  31.513999999999996
  466     1 8.249  9.878  28.499000000000002
  467     1 7.116  8.958  27.767000000000003
  468     3 8.095  9.143  27.838
  469     1 6.327  0.96  47.066
  470     1 5.011  0.7130000000000001  48.0
  471     3 5.327000000000001  0.938  47.07900000000001
  472     1 6.205  17.229  39.61
  473     1 5.095  16.032000000000004  39.627
  474     3 6.0440000000000005  16.267  39.831
  475     1 2.454  12.628000000000002  47.27
  476     1 2.7950000000000004  11.225000000000001  46.508
  477     3 2.301  12.091000000000001  46.44
  478     1 17.943  10.087  16.225
  479     1 17.157  11.19  17.137
  480     3 18.001  10.996000000000002  16.638
  481     1 13.032000000000002  3.9020000000000006  32.006
  482     1 11.499000000000002  3.753  31.462
  483     3 12.222  3.314  31.993
  484     1 9.626  10.651  35.096
  485     1 8.327  11.641000000000002  35.095
  486     3 9.323  11.6  35.177
  487     1 16.822  11.447000000000001  12.079
  488     1 17.998000000000005  11.269  10.96
  489     3 17.695  11.805000000000001  11.747
  490     1 5.608  0.8950000000000001  0.312
  491     1 7.031000000000001  0.253  0.791
  492     3 6.506  1.099  0.703
  493     1 4.661  6.030000000000001  26.922
  494     1 3.732  5.307  25.790000000000003
  495     3 3.7450000000000006  5.687000000000001  26.714
  496     1 8.265  13.442  21.295
  497     1 9.879  13.283000000000001  21.481
  498     3 9.017  12.788000000000002  21.382
  499     1 5.542  1.2  26.378
  500     1 4.476  0.0  26.678
  501     3 5.011  0.4570000000000001  25.969000000000005
  502     1 17.152  18.0  24.918
  503     1 18.0  17.434000000000005  26.194
  504     3 17.408  17.18  25.430000000000003
  505     1 7.86  11.551  29.896
  506     1 7.319  13.090000000000002  29.952
  507     3 8.134  12.512  29.94
  508     1 16.94  17.979  0.985
  509     1 16.135  16.761  1.7160000000000002
  510     3 16.984  17.287  1.7070000000000003
  511     1 5.144000000000001  13.571  46.513
  512     1 5.255  14.238  48.0
  513     3 4.669  13.715000000000002  47.382
  514     1 1.854  6.738  31.356
  515     1 0.547  5.759  31.321000000000005
  516     3 1.5400000000000003  5.792000000000001  31.437000000000005
  517     1 17.035  0.68  42.904
  518     1 15.77  1.657  43.235
  519     3 16.422  1.007  43.623
  520     1 14.816000000000003  7.173  22.357
  521     1 14.195000000000002  8.623  22.781
  522     3 14.938000000000002  8.164  22.295
  523     1 13.235000000000001  17.574  13.211
  524     1 13.204000000000002  15.952000000000002  13.396000000000003
  525     3 12.674000000000001  16.794000000000004  13.489999999999998
  526     1 16.61  14.944000000000003  16.427
  527     1 15.810000000000002  13.947000000000001  15.410000000000002
  528     3 15.754000000000001  14.448  16.273
  529     1 12.703  12.473  44.428
  530     1 11.397000000000002  11.664000000000001  43.875
  531     3 12.375  11.824000000000002  43.742
  532     1 9.24  0.533  39.539
  533     1 10.75  0.507  40.16
  534     3 9.894  19.999  40.075
  535     1 12.219  12.709000000000001  15.737000000000002
  536     1 10.848000000000003  11.822  15.781
  537     3 11.75  11.951  16.191
  538     1 4.658  13.682  27.239
  539     1 3.628  13.371000000000002  28.468
  540     3 4.591000000000001  13.445  28.209
  541     1 9.356  14.147  14.365
  542     1 8.856  12.615  14.631
  543     3 9.486  13.331  14.929
  544     1 15.648  11.145  26.322000000000003
  545     1 15.524000000000001  9.753  27.167
  546     3 15.064000000000002  10.609  26.932000000000002
  547     1 9.094  17.190000000000005  24.206
  548     1 10.161  18.0  23.272
  549     3 9.983  17.141  23.751
  550     1 11.11  10.675  23.225
  551     1 10.675  11.251  21.76
  552     3 11.439000000000002  10.918  22.312
  553     1 6.096  12.560000000000002  37.407
  554     1 5.272  11.169  37.18
  555     3 5.329000000000001  12.004000000000001  37.726
  556     1 16.179  4.697  5.087
  557     1 17.413  5.191  4.139
  558     3 16.671  5.494  4.735
  559     1 7.563  7.752  18.951
  560     1 8.207  8.318  17.561
  561     3 8.067  8.508  18.532
  562     1 5.505  2.844  45.284
  563     1 5.658000000000001  3.609  43.849
  564     3 6.093000000000001  3.436  44.732
  565     1 19.998  17.232  36.121
  566     1 1.5600000000000003  17.676  35.952
  567     3 0.625  18.009  36.067
  568     1 3.7590000000000003  15.892  15.5
  569     1 4.681  14.884000000000002  16.396
  570     3 3.7450000000000006  15.170000000000002  16.193
  571     1 17.416  4.336  38.697
  572     1 17.476  2.744  38.338
  573     3 18.0  3.5240000000000005  38.676
  574     1 8.046  9.367  1.883
  575     1 8.013  10.998  1.806
  576     3 7.453000000000001  10.171  1.838
  577     1 10.996000000000002  15.258000000000001  12.353
  578     1 9.52  15.956000000000001  12.345
  579     3 10.013000000000002  15.091000000000001  12.272
  580     1 3.188  4.675000000000001  36.28
  581     1 4.344  3.554  36.552
  582     3 3.3980000000000006  3.697  36.263
  583     1 5.783  4.531  25.617
  584     1 6.421000000000001  3.0310000000000006  25.533
  585     3 6.576  3.9660000000000006  25.848
  586     1 5.473  11.114  32.532
  587     1 6.598000000000001  11.937  31.681000000000004
  588     3 6.415000000000001  11.449  32.534
  589     1 13.067000000000002  13.635000000000002  26.604
  590     1 13.889  14.994  26.982
  591     3 13.969000000000001  14.013  26.809
  592     1 8.799  17.979  4.058
  593     1 10.391000000000002  17.934  4.422
  594     3 9.591  17.381  4.191
  595     1 3.796  12.845000000000002  36.243
  596     1 3.8200000000000003  14.422  36.668
  597     3 4.381  13.609  36.518
  598     1 8.191000000000003  6.006  11.776
  599     1 9.144000000000002  7.223000000000001  12.302
  600     3 9.113  6.391  11.749
  601     1 6.392000000000001  5.848  19.618
  602     1 7.997000000000001  5.571000000000001  19.497
  603     3 7.101000000000001  5.142000000000001  19.607
  604     1 10.1  8.809000000000001  3.1550000000000002
  605     1 9.271  9.78  4.173
  606     3 9.855  9.756  3.363
  607     1 12.563000000000002  11.052  39.328
  608     1 11.11  10.308  39.3
  609     3 12.095000000000002  10.171  39.395
  610     1 1.8620000000000003  0.20000000000000004  17.209
  611     1 0.62  1.2230000000000003  16.93
  612     3 1.4850000000000003  1.1030000000000002  17.417
  613     1 0.9420000000000001  9.483  34.121
  614     1 0.0  10.817  34.117
  615     3 0.0  9.819  34.15
  616     1 13.875000000000002  17.853  8.013
  617     1 15.119  16.998  7.391
  618     3 14.215  17.379  7.2010000000000005
  619     1 0.909  15.011000000000001  9.163
  620     1 0.031000000000000003  13.654000000000002  8.932
  621     3 19.998  14.652000000000001  8.956
  622     1 7.653  9.616  33.736
  623     1 6.119  9.187  33.372
  624     3 6.963  8.896  33.823
  625     1 1.8400000000000003  13.379000000000001  11.26
  626     1 1.976  14.997  11.087
  627     3 1.3970000000000002  14.259000000000002  11.432
  628     1 3.285  14.210000000000003  2.311
  629     1 2.748  12.705000000000002  2.65
  630     3 3.4220000000000006  13.235000000000001  2.135
  631     1 11.389  4.162  23.212
  632     1 11.033  5.673  23.721
  633     3 10.653000000000002  4.775  23.501
  634     1 5.926  9.482  20.561
  635     1 6.838000000000001  8.209  21.025
  636     3 6.837  9.194  20.858
  637     1 11.75  17.523  19.884
  638     1 10.123  17.554  19.743
  639     3 10.986  17.766  19.286
  640     1 2.485  8.116  37.917
  641     1 2.7510000000000003  9.531  38.688
  642     3 2.414  8.596  38.792
  643     1 17.039  11.544  44.33
  644     1 15.611  12.318  44.165
  645     3 16.581000000000003  12.432  44.378
  646     1 17.092  5.1  36.394
  647     1 18.0  6.121  37.288
  648     3 17.068000000000005  5.877  37.023
  649     1 13.871000000000002  6.495000000000001  24.224
  650     1 14.369  7.5760000000000005  25.342
  651     3 13.919  6.695000000000001  25.202999999999996
  652     1 5.578000000000001  10.185000000000002  47.776
  653     1 4.903  8.878  47.067
  654     3 4.983  9.874  47.035
  655     1 12.901  8.241  27.125
  656     1 12.462  6.699000000000001  27.435
  657     3 13.227000000000002  7.299000000000001  27.201000000000004
  658     1 8.128  18.001  8.633
  659     1 9.559  18.001  9.42
  660     3 8.721  17.484  9.25
  661     1 4.247  13.260000000000002  7.858
  662     1 5.357000000000001  14.179000000000002  7.090000000000001
  663     3 5.134  13.254000000000001  7.396
  664     1 16.568  10.534  46.499
  665     1 17.997  10.292000000000002  47.251
  666     3 17.160000000000004  10.837000000000002  47.246
  667     1 10.393  17.939  27.833999999999996
  668     1 9.26  17.067  28.624
  669     3 9.713  17.956  28.567000000000004
  670     1 16.929  13.521  33.249
  671     1 16.618  12.569  31.959
  672     3 16.472  13.473000000000003  32.36
  673     1 5.712000000000001  1.523  28.571999999999996
  674     1 6.403  2.748  27.742
  675     3 6.517  2.113  28.504999999999995
  676     1 11.339000000000002  8.162  42.635
  677     1 12.350000000000001  9.436  42.789
  678     3 11.393000000000002  9.158  42.716
  679     1 7.283  15.065  4.323
  680     1 7.042000000000001  13.740000000000002  5.248
  681     3 7.733  14.340000000000002  4.845
  682     1 10.243  4.949  2.549
  683     1 11.345  6.153  2.498
  684     3 11.208  5.18  2.677
  685     1 6.385000000000001  2.782  36.225
  686     1 6.502  4.325  35.703
  687     3 7.019000000000001  3.5150000000000006  35.977
  688     1 3.1340000000000003  3.5780000000000003  23.42
  689     1 4.173  3.248  24.637
  690     3 4.094  3.5950000000000006  23.703
  691     1 10.995  14.383  46.723
  692     1 9.367  14.27  46.779
  693     3 10.136000000000001  14.831000000000001  46.474